<?xml version="1.0"?>
<VTKFile type="PolyData" version="0.1" byte_order="LittleEndian" compressor="vtkZLibDataCompressor">
	<PolyData>
		<Piece NumberOfPoints="264" NumberOfVerts="0" NumberOfLines="0" NumberOfStrips="0" NumberOfPolys="524">
		<PointData Normals="Normals">
		<DataArray type="Float32" Name="Normals" NumberOfComponents="3" format="ascii">
			-0.960378 -0.239520 -0.142495
			-0.755397  0.654560 -0.030436
			-0.989852 -0.117525  0.079886
			-0.663690 -0.740270  0.107313
			-0.224605 -0.969014  0.102781
			-0.380069 -0.923545 -0.051105
			-0.947797 -0.117603 -0.296396
			-0.510760  0.814297 -0.275761
			-0.557500  0.829998 -0.017208
			-0.455749  0.890033  0.011554
			-0.425577  0.904858 -0.010806
			-0.509991  0.858997  0.045098
			-0.910022  0.333619  0.246085
			 0.079958  0.996001  0.039866
			-0.721872 -0.577855  0.380769
			 0.282006 -0.945774  0.161197
			 0.708977 -0.701139  0.075864
			 0.709916 -0.667592  0.224366
			-0.810587 -0.497738 -0.308554
			 0.013710 -0.994074  0.107841
			 0.218394 -0.965759  0.140047
			-0.917827  0.180384 -0.353632
			-0.093658  0.908864 -0.406442
			 0.438037  0.898956  0.001057
			 0.085542  0.995731 -0.034666
			 0.659743  0.740609  0.127425
			-0.543516  0.838806 -0.031539
			-0.398153  0.917086 -0.020681
			-0.475355  0.879774 -0.005962
			-0.373788  0.927493  0.006271
			-0.355972  0.934377  0.014925
			-0.428502  0.899219  0.088262
			-0.241393  0.969953 -0.030330
			-0.842174  0.133377  0.522449
			-0.277357  0.936688  0.213750
			-0.622604  0.750636  0.221155
			-0.811115  0.553379  0.189380
			 0.984109  0.177450  0.006408
			 0.256009  0.966437 -0.021421
			-0.671281 -0.331842  0.662768
			-0.293113 -0.831356  0.472158
			 0.785080 -0.618460 -0.034022
			 0.892415 -0.450886 -0.017241
			-0.014879 -0.987908  0.154327
			 0.423940 -0.902224 -0.079159
			 0.486321 -0.831768  0.267683
			 0.886989 -0.339259  0.313296
			-0.504391 -0.860537 -0.071174
			 0.265403 -0.935338  0.233890
			-0.013786 -0.993811  0.110230
			-0.132553 -0.986297  0.098228
			 0.342596 -0.883927  0.318278
			 0.196547 -0.960699  0.196029
			 0.371538 -0.899177  0.231171
			-0.996050 -0.086519 -0.019945
			 0.053879  0.998333 -0.020676
			-0.732304  0.662189  0.158862
			 0.477036  0.876599  0.063329
			 0.502943  0.864103  0.019344
			 0.504800  0.860704  0.066074
			 0.473151  0.879249  0.055228
			 0.481145  0.869208  0.113916
			 0.214248  0.976085  0.036818
			 0.136242  0.989729  0.043294
			 0.572175  0.791122  0.216197
			 0.236377  0.970287  0.051658
			-0.500442  0.856109 -0.128982
			-0.410393  0.909056 -0.072077
			-0.286311  0.951221 -0.114911
			-0.231420  0.971407 -0.053048
			-0.940029  0.249473  0.232613
			-0.804985 -0.263527  0.531557
			-0.188664  0.952963  0.237207
			 0.084031  0.937334  0.338147
			-0.497793  0.842877  0.204356
			-0.348880  0.907984  0.232051
			-0.027259  0.949123  0.313725
			-0.954024  0.299713 -0.003240
			-0.353183  0.918973  0.175356
			-0.872362  0.410338 -0.265720
			-0.973730  0.216419 -0.070796
			 0.281856  0.957382 -0.063058
			 0.843093  0.068378 -0.533403
			 0.844813  0.449409 -0.290384
			 0.766699 -0.290621 -0.572462
			-0.535453 -0.533354  0.654846
			-0.471562 -0.842611  0.260068
			 0.663220 -0.706755 -0.246244
			 0.802559 -0.556331 -0.215393
			-0.036673 -0.947270 -0.318330
			-0.258219 -0.884259 -0.389114
			-0.290885 -0.956205 -0.032532
			 0.012681 -0.757562 -0.652640
			 0.260196 -0.691436 -0.673954
			 0.443847 -0.779369  0.442248
			 0.972447 -0.069063  0.222660
			-0.009264 -0.999864  0.013683
			-0.417339 -0.908747  0.002774
			-0.093206 -0.987521  0.126943
			 0.061039 -0.982702  0.174846
			 0.340254 -0.657785  0.671971
			 0.245818 -0.848856  0.467993
			 0.335886 -0.919067  0.206144
			 0.265804 -0.859541  0.436506
			 0.186183 -0.962490  0.197353
			-0.710782 -0.695084  0.107922
			-0.997977 -0.017008  0.061254
			-0.655005 -0.753673  0.054264
			-0.628950  0.768059 -0.120450
			-0.506750  0.858675  0.076690
			-0.549988  0.804360  0.224761
			 0.346734  0.929874  0.122923
			 0.455105  0.885963  0.089153
			 0.110356  0.965187  0.237140
			-0.083077  0.968053  0.236582
			 0.333286  0.930288  0.153246
			 0.476318  0.879267  0.003206
			 0.513691  0.857532  0.027573
			 0.958440 -0.254720 -0.128492
			 0.183801  0.978566  0.092880
			-0.520007  0.838548 -0.162574
			-0.365349  0.925690 -0.098076
			-0.453784  0.889872 -0.046980
			-0.305248  0.947849 -0.091684
			-0.421180  0.906270 -0.035802
			-0.981516  0.182104 -0.058861
			-0.871306 -0.484999 -0.074840
			-0.918597 -0.266259 -0.292038
			 0.084324  0.988938  0.122032
			 0.186272  0.876016  0.444859
			 0.106110  0.832107  0.544370
			-0.475046  0.874879  0.094431
			-0.304826  0.874821  0.376522
			-0.907156 -0.123388 -0.402298
			-0.179961  0.878861 -0.441834
			 0.082087  0.951661 -0.295977
			-0.545610  0.793716 -0.268933
			-0.360477  0.483061 -0.797940
			-0.681960  0.244392 -0.689350
			-0.570771 -0.085088 -0.816689
			-0.306491  0.950745 -0.046332
			-0.278196  0.960346  0.018494
			-0.221431  0.974684 -0.030971
			-0.184327  0.962467  0.199201
			-0.170363  0.980542  0.097538
			 0.567950  0.688770 -0.450587
			 0.206228  0.977497  0.044386
			 0.572946  0.455818 -0.681148
			 0.322524  0.220780 -0.920453
			 0.540366  0.577184 -0.612261
			 0.449974 -0.487366 -0.748330
			 0.098614 -0.132060 -0.986324
			 0.150394 -0.004258 -0.988617
			-0.527181 -0.846148 -0.078195
			-0.260339 -0.708318 -0.656132
			-0.406230 -0.614652 -0.676151
			-0.487102 -0.751735 -0.444552
			-0.249527 -0.340468 -0.906542
			-0.297872 -0.506896 -0.808906
			-0.039092 -0.343311 -0.938408
			 0.420483 -0.882873  0.209116
			 0.143426 -0.989306 -0.026505
			 0.136473 -0.989860 -0.039390
			-0.035073 -0.999063 -0.025359
			 0.108046 -0.991454  0.073113
			-0.162834 -0.986494  0.017720
			-0.376416 -0.923573  0.072966
			 0.150048 -0.979175  0.136754
			 0.236691 -0.963393  0.125900
			-0.573938 -0.792293  0.207042
			-0.640947  0.763934 -0.074782
			-0.911812 -0.074550  0.403783
			-0.324513  0.935020 -0.142931
			-0.271149  0.961210 -0.050532
			-0.224860  0.967258 -0.117688
			-0.087707  0.987013  0.134586
			-0.062589  0.997996  0.009287
			 0.229692  0.970973  0.066734
			 0.401778  0.915649 -0.012677
			 0.590329  0.806987 -0.016842
			 0.539893  0.840573 -0.044193
			 0.555700  0.824145 -0.109465
			 0.206967 -0.976134  0.065786
			 0.180381 -0.978502 -0.099979
			 0.200309 -0.979674  0.010694
			 0.846751 -0.045734 -0.530019
			 0.206812 -0.924910 -0.319013
			 0.246164 -0.939013 -0.240123
			 0.569569  0.803267 -0.174224
			-0.516957  0.855755  0.020971
			-0.694242 -0.573510 -0.434873
			-0.686114 -0.678482 -0.262505
			-0.602277 -0.526564 -0.599994
			 0.001345  0.931352  0.364118
			 0.428795  0.822185 -0.374363
			-0.650101 -0.527509 -0.546903
			-0.680832 -0.415912 -0.602897
			 0.234262  0.652060 -0.721068
			-0.014846  0.030352 -0.999429
			 0.238575  0.325935 -0.914794
			-0.300111 -0.492631 -0.816852
			 0.022671 -0.354824 -0.934658
			 0.615036  0.418909 -0.668016
			 0.530158  0.311809 -0.788484
			 0.493606  0.437375 -0.751702
			 0.032045 -0.004674 -0.999475
			 0.369184  0.177153 -0.912315
			-0.020733 -0.185627 -0.982402
			-0.036862 -0.130086 -0.990817
			-0.418872 -0.567442 -0.708911
			-0.448350 -0.301395 -0.841513
			-0.492162 -0.614751 -0.616326
			-0.201283 -0.206793 -0.957456
			-0.286644 -0.349768 -0.891907
			-0.018100 -0.987889 -0.154100
			-0.339725 -0.938780  0.057260
			-0.400871 -0.908748  0.116099
			-0.424395 -0.894957  0.137625
			-0.401840 -0.895017  0.193570
			-0.674482 -0.398714  0.621370
			 0.096168  0.973846 -0.205856
			-0.611043  0.693001  0.382592
			-0.052194  0.981937 -0.181864
			-0.003339  0.997820 -0.065903
			 0.119863  0.982841 -0.140200
			 0.170231  0.985392  0.004858
			 0.404911  0.912981 -0.050126
			 0.420258  0.901996 -0.098924
			 0.206287 -0.953359 -0.220347
			 0.705731  0.708383 -0.011734
			 0.431619 -0.816625 -0.383181
			 0.939487 -0.166755 -0.299262
			-0.121191 -0.992504 -0.015737
			 0.160051 -0.961508 -0.223354
			 0.436227  0.890637 -0.128345
			-0.182727 -0.609711 -0.771273
			 0.217906 -0.304301 -0.927318
			 0.435360 -0.102596 -0.894392
			 0.166589 -0.257116 -0.951914
			-0.258765 -0.965887  0.010119
			-0.520023 -0.679751  0.517218
			-0.477000 -0.083378  0.874939
			-0.431756  0.347681  0.832289
			 0.427313  0.870262 -0.245044
			 0.472506  0.818790 -0.326070
			 0.366949  0.904941 -0.215476
			 0.068449  0.957763  0.279294
			 0.326122  0.938833 -0.110621
			 0.264346  0.961769 -0.071571
			 0.488779  0.849541 -0.198434
			 0.587219  0.791619 -0.168857
			 0.675271  0.734154  0.070905
			 0.719316  0.564071  0.405473
			 0.814844 -0.448845  0.366834
			-0.345728 -0.818009  0.459709
			 0.109652 -0.902012  0.417554
			 0.358687 -0.393013 -0.846691
			-0.110182 -0.139583  0.984061
			-0.052781  0.342625  0.937989
			 0.489739  0.643410  0.588370
			 0.537526  0.808541 -0.239432
			 0.551642  0.826223 -0.114224
			 0.701158  0.708353 -0.081323
			 0.409676 -0.167899  0.896647
		</DataArray>
	</PointData>
	<Points>
		<DataArray type="Float32" NumberOfComponents="3" format="ascii">
      0.03091	0.379376	0.07672
      0.032725	0.388411	0.073827
      0.031654	0.378319	0.068994
      0.032396	0.376029	0.06643
      0.033325	0.376575	0.078236
      0.027258	0.379238	0.096583
      0.025913	0.382403	0.095651
      0.023761	0.389446	0.107149
      0.033795	0.389082	0.055032
      0.034859	0.389897	0.055414
      0.03251	0.388335	0.05419
      0.030925	0.387721	0.053111
      0.029732	0.384393	0.054986
      0.039297	0.390443	0.070632
      0.028946	0.3745	0.052341
      0.036197	0.372583	0.041441
      0.041575	0.375995	0.062208
      0.038434	0.382881	0.101677
      0.019094	0.381739	0.113347
      0.024476	0.380747	0.119152
      0.027978	0.380082	0.113463
      0.009975	0.391517	0.129302
      0.013327	0.39518	0.129132
      0.020615	0.39175	0.135077
      0.024813	0.389958	0.121226
      0.038258	0.38797	0.100466
      0.034369	0.38945	0.051908
      0.035374	0.390172	0.05377
      0.033264	0.388676	0.05172
      0.032042	0.388109	0.052108
      0.031815	0.388068	0.050411
      0.029344	0.387489	0.047156
      0.030641	0.387681	0.048624
      0.022243	0.37614	0.041378
      0.028195	0.387528	0.043144
      0.02658	0.38773	0.038295
      0.022626	0.387759	0.026044
      0.044807	0.386518	0.054548
      0.0406	0.39096	0.054026
      0.023032	0.373529	0.041714
      0.024655	0.371618	0.041603
      0.039881	0.37468	0.030286
      0.042692	0.379837	0.041285
      0.028639	0.369598	0.037241
      0.034838	0.370146	0.0307
      0.029723	0.381257	0.114743
      0.03075	0.386005	0.123645
      0.015146	0.382532	0.123854
      0.026899	0.3804	0.116071
      0.020076	0.381699	0.131011
      0.018379	0.382011	0.132842
      0.024786	0.382684	0.128118
      0.021326	0.381907	0.131855
      0.027981	0.381305	0.117925
      0.008558	0.386535	0.140555
      0.011843	0.396552	0.131658
      0.010826	0.394402	0.138875
      0.018137	0.392974	0.138366
      0.020866	0.391507	0.1383
      0.018059	0.393242	0.136573
      0.022535	0.39058	0.135801
      0.02727	0.38894	0.129126
      0.026262	0.38978	0.123094
      0.029152	0.389505	0.119915
      0.032009	0.389267	0.116748
      0.032666	0.390135	0.112466
      0.034702	0.389513	0.050192
      0.033221	0.388619	0.04957
      0.036546	0.390268	0.04815
      0.032239	0.387336	0.04199
      0.019577	0.375035	0.037864
      0.019852	0.373077	0.038975
      0.028974	0.389673	0.033852
      0.031225	0.389553	0.035769
      0.026993	0.388383	0.036069
      0.027813	0.3891	0.035067
      0.032214	0.387397	0.03823
      0.021018	0.382466	0.029382
      0.027221	0.391327	0.026856
      0.022633	0.388058	0.024544
      0.021888	0.385138	0.026804
      0.040982	0.389279	0.039863
      0.042086	0.380676	0.026632
      0.042624	0.384649	0.02974
      0.041458	0.378844	0.026244
      0.021774	0.372312	0.040252
      0.020853	0.371875	0.038773
      0.038074	0.373024	0.028265
      0.039669	0.375088	0.028114
      0.03222	0.369945	0.029708
      0.028644	0.369797	0.031584
      0.024499	0.370071	0.035165
      0.034134	0.370477	0.028686
      0.03596	0.371974	0.027447
      0.027431	0.38307	0.127125
      0.028813	0.38649	0.130784
      0.016621	0.383226	0.140752
      0.010816	0.383872	0.141109
      0.017335	0.38288	0.138251
      0.018141	0.382488	0.136111
      0.026406	0.383151	0.127583
      0.026883	0.383627	0.12779
      0.021822	0.382745	0.134399
      0.025798	0.382622	0.127354
      0.020442	0.383023	0.136686
      0.009409	0.385903	0.153478
      0.007584	0.388617	0.15304
      0.009588	0.385392	0.149185
      0.010991	0.392566	0.154367
      0.011625	0.393301	0.144987
      0.011174	0.393843	0.14131
      0.014992	0.3948	0.137399
      0.016222	0.394292	0.137187
      0.014081	0.394873	0.138815
      0.012658	0.394698	0.138966
      0.015191	0.394223	0.140567
      0.021156	0.391321	0.141272
      0.022541	0.390455	0.138993
      0.028037	0.386174	0.150435
      0.027982	0.389424	0.123892
      0.035658	0.389574	0.048123
      0.033791	0.388499	0.045606
      0.03498	0.388682	0.043763
      0.036977	0.39013	0.045897
      0.033446	0.387919	0.042174
      0.020122	0.379955	0.031083
      0.019588	0.373155	0.037591
      0.019728	0.375174	0.033351
      0.031291	0.391548	0.027725
      0.032546	0.389782	0.034674
      0.032712	0.388633	0.036168
      0.034076	0.388293	0.039702
      0.033853	0.388893	0.035854
      0.020676	0.379418	0.028719
      0.026871	0.391248	0.023718
      0.02877	0.391576	0.02418
      0.025164	0.390502	0.02353
      0.02557	0.38948	0.022192
      0.023892	0.387961	0.022835
      0.024924	0.383177	0.021327
      0.036883	0.389926	0.043633
      0.036321	0.38965	0.038875
      0.03661	0.389732	0.041308
      0.034985	0.389777	0.03503
      0.035891	0.389651	0.036599
      0.03957	0.388281	0.029772
      0.035244	0.390121	0.031749
      0.041953	0.384594	0.028431
      0.040875	0.380905	0.026116
      0.040852	0.386012	0.028824
      0.039335	0.375409	0.026321
      0.03889	0.377131	0.025841
      0.040016	0.379054	0.025782
      0.022335	0.370914	0.036349
      0.031091	0.3705	0.029431
      0.029199	0.37073	0.030184
      0.022696	0.371271	0.03421
      0.032791	0.372829	0.02746
      0.031624	0.371525	0.02828
      0.035919	0.373868	0.026453
      0.027462	0.384267	0.129712
      0.018725	0.383475	0.144971
      0.016775	0.383154	0.144838
      0.01471	0.382936	0.144686
      0.019013	0.383477	0.141756
      0.015452	0.382976	0.148239
      0.012676	0.384114	0.153072
      0.019533	0.383187	0.139115
      0.02192	0.383746	0.139386
      0.011344	0.38538	0.158136
      0.009357	0.392917	0.160172
      0.010407	0.391621	0.168753
      0.011096	0.393539	0.159309
      0.012233	0.393384	0.154135
      0.01236	0.393762	0.15704
      0.013736	0.393681	0.144708
      0.01383	0.39329	0.149098
      0.015842	0.39374	0.144014
      0.018998	0.392411	0.144752
      0.022946	0.390166	0.142182
      0.022152	0.390883	0.145174
      0.023635	0.390226	0.149305
      0.021292	0.383813	0.142008
      0.017266	0.383021	0.148366
      0.020946	0.383791	0.145133
      0.033426	0.384995	0.161306
      0.026397	0.382728	0.159587
      0.024601	0.383341	0.155889
      0.025575	0.389829	0.154894
      0.035348	0.388994	0.041627
      0.020921	0.373237	0.033759
      0.020847	0.37224	0.035355
      0.021135	0.374359	0.032281
      0.033853	0.389879	0.034174
      0.033256	0.390891	0.026124
      0.022431	0.378938	0.026884
      0.023204	0.380411	0.024348
      0.028982	0.390037	0.0225
      0.027288	0.386158	0.020877
      0.029195	0.388352	0.02121
      0.02488	0.381317	0.022337
      0.026518	0.383445	0.02113
      0.037952	0.3872	0.02728
      0.036372	0.386752	0.025509
      0.03936	0.384867	0.027342
      0.038071	0.379131	0.025781
      0.037575	0.384416	0.025759
      0.037324	0.375301	0.026077
      0.036638	0.37725	0.02594
      0.025019	0.37167	0.032024
      0.029972	0.372024	0.028929
      0.022784	0.372477	0.032577
      0.034086	0.374347	0.026704
      0.031171	0.373538	0.027996
      0.023901	0.38148	0.163173
      0.02302	0.381432	0.16677
      0.014349	0.383872	0.157557
      0.013039	0.384633	0.15846
      0.024348	0.38113	0.169545
      0.0231	0.385442	0.180045
      0.015032	0.396143	0.168943
      0.013347	0.395989	0.169675
      0.014853	0.394874	0.163466
      0.014661	0.393677	0.154274
      0.016266	0.393964	0.159966
      0.016476	0.393368	0.148596
      0.020171	0.391985	0.149211
      0.021863	0.391754	0.154893
      0.022514	0.382878	0.156165
      0.036563	0.385989	0.171133
      0.034071	0.380985	0.166137
      0.03732	0.382988	0.168704
      0.02981	0.379612	0.169523
      0.024322	0.382334	0.159693
      0.023971	0.39135	0.160163
      0.025102	0.379267	0.023652
      0.028425	0.3836	0.021261
      0.030548	0.38578	0.021731
      0.033047	0.378829	0.025508
      0.026547	0.380249	0.168393
      0.024463	0.384318	0.180201
      0.024035	0.386701	0.180937
      0.019357	0.395243	0.17701
      0.024374	0.392606	0.168229
      0.022989	0.394422	0.170979
      0.022515	0.395709	0.173346
      0.020507	0.39647	0.176259
      0.019929	0.393204	0.160301
      0.018104	0.393228	0.154627
      0.027059	0.391639	0.170303
      0.026027	0.393184	0.174
      0.027824	0.391802	0.175472
      0.029441	0.389697	0.177066
      0.037328	0.381009	0.174281
      0.028061	0.381268	0.179452
      0.030886	0.380702	0.179097
      0.030048	0.383341	0.021985
      0.026333	0.384886	0.181788
      0.02433	0.389685	0.180569
      0.026288	0.39361	0.177619
      0.025163	0.393053	0.171523
      0.02442	0.394967	0.175701
      0.026317	0.393449	0.17591
      0.029821	0.382062	0.180846

    </DataArray>
	</Points>
			<Polys>
				<DataArray type="Int32" Name="connectivity" format="ascii">
					0 1 2 
					2 3 0 
					0 4 5 
					0 5 6 
					4 0 3 
					6 7 0 
					1 0 7 
					8 1 9 
					10 11 1 
					8 10 1 
					11 12 1 
					12 2 1 
					9 1 13 
					1 7 13 
					12 14 2 
					2 14 3 
					3 14 15 
					3 15 4 
					16 4 15 
					4 16 17 
					4 17 5 
					5 18 6 
					19 18 5 
					5 17 20 
					19 5 20 
					18 7 6 
					7 18 21 
					21 22 7 
					22 23 7 
					23 24 7 
					7 24 25 
					25 13 7 
					26 8 27 
					9 27 8 
					28 10 8 
					26 28 8 
					27 9 13 
					29 11 10 
					29 10 28 
					29 30 11 
					11 31 12 
					31 11 32 
					32 11 30 
					33 14 12 
					31 34 12 
					34 35 12 
					35 36 12 
					36 33 12 
					37 13 25 
					38 13 37 
					38 27 13 
					14 33 39 
					40 14 39 
					14 40 15 
					41 42 15 
					15 40 43 
					16 15 42 
					41 15 44 
					44 15 43 
					37 17 16 
					37 16 42 
					20 17 45 
					46 45 17 
					25 46 17 
					17 37 25 
					21 18 47 
					47 18 19 
					19 20 48 
					49 50 19 
					47 19 50 
					51 52 19 
					19 52 49 
					19 48 53 
					53 51 19 
					48 20 45 
					47 54 21 
					55 21 56 
					56 21 54 
					21 55 22 
					22 55 23 
					57 58 23 
					23 59 57 
					59 23 55 
					23 60 61 
					23 61 62 
					24 23 62 
					60 23 58 
					63 24 62 
					24 63 64 
					64 65 24 
					24 65 25 
					65 64 25 
					25 64 46 
					26 66 67 
					67 28 26 
					26 27 66 
					27 68 66 
					68 27 38 
					28 67 30 
					29 28 30 
					32 30 67 
					69 31 32 
					69 34 31 
					32 67 69 
					36 70 33 
					70 71 33 
					39 33 71 
					72 34 73 
					74 35 34 
					34 75 74 
					72 75 34 
					73 34 76 
					69 76 34 
					36 35 74 
					70 36 77 
					36 74 78 
					79 36 78 
					80 77 36 
					80 36 79 
					37 81 38 
					82 83 37 
					81 37 83 
					42 84 37 
					37 84 82 
					38 81 68 
					40 39 85 
					85 39 71 
					43 40 86 
					85 86 40 
					44 87 41 
					41 84 42 
					84 41 88 
					88 41 87 
					89 44 43 
					89 43 90 
					43 91 90 
					43 86 91 
					92 93 44 
					44 93 87 
					92 44 89 
					45 46 53 
					45 53 48 
					53 46 94 
					95 46 64 
					95 94 46 
					96 97 47 
					54 47 97 
					98 96 47 
					50 98 47 
					49 52 50 
					99 98 50 
					52 99 50 
					51 100 101 
					102 52 51 
					103 51 53 
					51 103 100 
					101 102 51 
					104 99 52 
					102 104 52 
					94 103 53 
					105 106 54 
					54 97 107 
					54 108 109 
					108 54 106 
					54 107 105 
					110 54 109 
					54 110 56 
					111 112 55 
					111 55 113 
					113 55 114 
					114 55 56 
					112 59 55 
					56 110 114 
					115 116 57 
					57 116 58 
					57 59 115 
					117 58 116 
					117 60 58 
					59 112 115 
					61 60 117 
					117 118 61 
					119 62 61 
					119 61 64 
					61 118 95 
					64 61 95 
					119 63 62 
					64 63 119 
					120 66 68 
					120 67 66 
					121 69 67 
					121 67 122 
					122 67 120 
					81 123 68 
					120 68 123 
					69 124 76 
					121 124 69 
					125 70 77 
					126 71 70 
					127 126 70 
					127 70 125 
					71 86 85 
					86 71 126 
					78 72 73 
					78 75 72 
					128 73 129 
					73 128 78 
					129 73 76 
					75 78 74 
					130 129 76 
					76 131 132 
					130 76 132 
					76 124 131 
					125 77 133 
					133 77 80 
					134 78 135 
					128 135 78 
					134 136 78 
					78 136 79 
					137 79 136 
					137 138 79 
					80 79 133 
					133 79 139 
					139 79 138 
					81 140 123 
					81 141 142 
					81 143 144 
					83 145 81 
					81 142 140 
					81 144 141 
					145 146 81 
					81 146 143 
					82 147 83 
					147 82 148 
					148 82 84 
					147 149 83 
					83 149 145 
					88 150 84 
					151 84 150 
					152 84 151 
					152 148 84 
					126 153 86 
					91 86 153 
					88 87 150 
					93 150 87 
					154 89 90 
					89 154 92 
					155 90 156 
					91 156 90 
					155 154 90 
					91 153 156 
					157 93 92 
					154 158 92 
					92 158 157 
					159 150 93 
					157 159 93 
					103 94 100 
					101 100 94 
					160 94 95 
					101 94 160 
					160 95 118 
					161 162 96 
					97 96 163 
					163 96 162 
					96 164 161 
					164 96 98 
					165 166 97 
					163 165 97 
					107 97 166 
					167 98 99 
					167 164 98 
					99 104 167 
					102 101 160 
					168 104 102 
					102 160 168 
					167 104 168 
					106 105 169 
					166 105 107 
					166 169 105 
					106 170 108 
					106 171 170 
					169 171 106 
					108 170 172 
					108 173 109 
					108 172 174 
					174 173 108 
					110 109 175 
					109 173 176 
					175 109 176 
					175 114 110 
					112 111 115 
					115 111 113 
					115 113 114 
					177 115 114 
					175 177 114 
					116 115 177 
					178 116 177 
					116 179 117 
					178 180 116 
					179 116 180 
					179 118 117 
					118 180 181 
					118 182 168 
					118 183 184 
					182 118 184 
					118 168 160 
					185 186 118 
					118 186 187 
					183 118 187 
					118 181 188 
					185 118 188 
					118 179 180 
					120 123 122 
					122 124 121 
					124 122 131 
					131 122 189 
					122 123 140 
					140 189 122 
					133 127 125 
					190 126 127 
					126 191 153 
					190 191 126 
					192 127 133 
					127 192 190 
					128 129 193 
					193 146 128 
					146 194 128 
					128 194 135 
					193 129 130 
					130 132 193 
					141 144 131 
					189 141 131 
					144 143 131 
					131 143 132 
					143 193 132 
					195 192 133 
					139 196 133 
					133 196 195 
					134 135 197 
					136 134 137 
					137 134 197 
					135 194 197 
					198 139 137 
					137 197 199 
					139 138 137 
					137 199 198 
					139 200 196 
					139 201 200 
					198 201 139 
					142 189 140 
					142 141 189 
					146 193 143 
					145 194 146 
					202 203 145 
					203 194 145 
					149 204 145 
					204 202 145 
					147 204 149 
					204 147 148 
					148 152 205 
					148 206 204 
					206 148 205 
					207 151 150 
					150 159 207 
					208 151 207 
					205 151 208 
					205 152 151 
					191 156 153 
					158 154 155 
					156 209 155 
					155 209 210 
					155 210 158 
					190 211 156 
					156 191 190 
					156 211 209 
					212 157 213 
					157 158 210 
					213 157 210 
					212 159 157 
					207 159 212 
					161 184 183 
					161 183 162 
					161 164 184 
					163 162 183 
					183 165 163 
					164 182 184 
					182 164 167 
					166 165 214 
					165 183 214 
					214 215 166 
					216 166 215 
					216 217 166 
					217 169 166 
					167 168 182 
					169 215 218 
					171 169 219 
					169 218 219 
					169 217 215 
					220 172 170 
					171 221 170 
					170 221 220 
					171 219 221 
					220 222 172 
					222 174 172 
					223 176 173 
					223 173 174 
					174 224 223 
					224 174 222 
					225 177 175 
					175 176 225 
					225 176 223 
					178 177 225 
					225 226 178 
					178 226 180 
					226 181 180 
					227 188 181 
					181 226 227 
					187 228 183 
					183 228 214 
					185 188 229 
					185 230 186 
					230 185 231 
					231 185 229 
					214 186 232 
					233 186 214 
					186 230 232 
					228 187 186 
					233 228 186 
					234 229 188 
					227 234 188 
					190 192 211 
					195 235 192 
					209 211 192 
					235 209 192 
					197 194 203 
					195 196 235 
					200 235 196 
					203 199 197 
					236 201 198 
					198 237 236 
					198 199 237 
					199 203 237 
					200 201 235 
					201 236 235 
					206 203 202 
					204 206 202 
					238 237 203 
					203 206 238 
					205 208 238 
					206 205 238 
					207 212 208 
					208 212 238 
					213 210 209 
					209 235 213 
					238 212 213 
					235 238 213 
					215 214 239 
					214 232 239 
					214 228 233 
					217 216 215 
					239 218 215 
					218 240 219 
					240 218 232 
					218 239 232 
					241 219 240 
					219 242 221 
					241 242 219 
					234 220 243 
					244 220 245 
					220 221 246 
					247 224 220 
					220 224 222 
					234 247 220 
					244 243 220 
					246 245 220 
					242 246 221 
					223 224 248 
					223 248 225 
					224 247 248 
					226 225 248 
					227 226 248 
					227 248 247 
					247 234 227 
					249 250 229 
					251 229 250 
					252 229 251 
					253 229 252 
					229 253 231 
					234 249 229 
					232 230 253 
					230 231 253 
					232 254 240 
					232 253 255 
					254 232 255 
					243 249 234 
					236 256 235 
					256 238 235 
					256 236 237 
					238 256 237 
					240 257 241 
					257 240 254 
					258 242 241 
					241 257 258 
					242 259 246 
					258 259 242 
					244 260 243 
					243 260 249 
					245 261 244 
					244 261 260 
					245 246 261 
					261 246 259 
					249 260 250 
					261 250 260 
					262 250 261 
					250 262 251 
					251 262 252 
					259 263 252 
					253 252 263 
					262 259 252 
					253 263 255 
					254 263 257 
					263 254 255 
					258 257 259 
					259 257 263 
					259 262 261 
				</DataArray>
				<DataArray type="Int32" Name="offsets" format="ascii">
					3 6 9 12 15 18 21 24 27 30 33 36 39 42 45 48 51 54 57 60 63 66 69 72 75 78 81 84 87 90 93 96 99 102 105 108 111 114 117 120 123 126 129 132 135 138 141 144 147 150 153 156 159 162 165 168 171 174 177 180 183 186 189 192 195 198 201 204 207 210 213 216 219 222 225 228 231 234 237 240 243 246 249 252 255 258 261 264 267 270 273 276 279 282 285 288 291 294 297 300 303 306 309 312 315 318 321 324 327 330 333 336 339 342 345 348 351 354 357 360 363 366 369 372 375 378 381 384 387 390 393 396 399 402 405 408 411 414 417 420 423 426 429 432 435 438 441 444 447 450 453 456 459 462 465 468 471 474 477 480 483 486 489 492 495 498 501 504 507 510 513 516 519 522 525 528 531 534 537 540 543 546 549 552 555 558 561 564 567 570 573 576 579 582 585 588 591 594 597 600 603 606 609 612 615 618 621 624 627 630 633 636 639 642 645 648 651 654 657 660 663 666 669 672 675 678 681 684 687 690 693 696 699 702 705 708 711 714 717 720 723 726 729 732 735 738 741 744 747 750 753 756 759 762 765 768 771 774 777 780 783 786 789 792 795 798 801 804 807 810 813 816 819 822 825 828 831 834 837 840 843 846 849 852 855 858 861 864 867 870 873 876 879 882 885 888 891 894 897 900 903 906 909 912 915 918 921 924 927 930 933 936 939 942 945 948 951 954 957 960 963 966 969 972 975 978 981 984 987 990 993 996 999 1002 1005 1008 1011 1014 1017 1020 1023 1026 1029 1032 1035 1038 1041 1044 1047 1050 1053 1056 1059 1062 1065 1068 1071 1074 1077 1080 1083 1086 1089 1092 1095 1098 1101 1104 1107 1110 1113 1116 1119 1122 1125 1128 1131 1134 1137 1140 1143 1146 1149 1152 1155 1158 1161 1164 1167 1170 1173 1176 1179 1182 1185 1188 1191 1194 1197 1200 1203 1206 1209 1212 1215 1218 1221 1224 1227 1230 1233 1236 1239 1242 1245 1248 1251 1254 1257 1260 1263 1266 1269 1272 1275 1278 1281 1284 1287 1290 1293 1296 1299 1302 1305 1308 1311 1314 1317 1320 1323 1326 1329 1332 1335 1338 1341 1344 1347 1350 1353 1356 1359 1362 1365 1368 1371 1374 1377 1380 1383 1386 1389 1392 1395 1398 1401 1404 1407 1410 1413 1416 1419 1422 1425 1428 1431 1434 1437 1440 1443 1446 1449 1452 1455 1458 1461 1464 1467 1470 1473 1476 1479 1482 1485 1488 1491 1494 1497 1500 1503 1506 1509 1512 1515 1518 1521 1524 1527 1530 1533 1536 1539 1542 1545 1548 1551 1554 1557 1560 1563 1566 1569 1572 
				</DataArray>
			</Polys>
		</Piece>
	</PolyData>
</VTKFile>
