<?xml version="1.0"?>
<VTKFile type="PolyData" version="0.1" byte_order="LittleEndian" compressor="vtkZLibDataCompressor">
	<PolyData>
		<Piece NumberOfPoints="264" NumberOfVerts="0" NumberOfLines="0" NumberOfStrips="0" NumberOfPolys="524">
		<PointData Normals="Normals">
		<DataArray type="Float32" Name="Normals" NumberOfComponents="3" format="ascii">
			-0.960379 -0.239513  0.142497
			-0.755398  0.654559  0.030436
			-0.989853 -0.117519 -0.079884
			-0.663696 -0.740265 -0.107311
			-0.224606 -0.969014 -0.102780
			-0.380069 -0.923545  0.051104
			-0.947798 -0.117593  0.296396
			-0.510760  0.814297  0.275761
			-0.557502  0.829997  0.017210
			-0.455763  0.890026 -0.011563
			-0.425581  0.904856  0.010804
			-0.509997  0.858993 -0.045098
			-0.910020  0.333625 -0.246086
			 0.079950  0.996001 -0.039868
			-0.721870 -0.577857 -0.380769
			 0.282005 -0.945774 -0.161197
			 0.708979 -0.701137 -0.075864
			 0.709918 -0.667590 -0.224367
			-0.810589 -0.497736  0.308553
			 0.013704 -0.994074 -0.107838
			 0.218387 -0.965762 -0.140039
			-0.917828  0.180379  0.353631
			-0.093663  0.908860  0.406448
			 0.438043  0.898954 -0.001060
			 0.085543  0.995731  0.034663
			 0.659744  0.740608 -0.127425
			-0.543516  0.838806  0.031551
			-0.398176  0.917076  0.020684
			-0.475347  0.879778  0.005972
			-0.373797  0.927489 -0.006265
			-0.355971  0.934378 -0.014920
			-0.428519  0.899211 -0.088261
			-0.241399  0.969952  0.030326
			-0.842176  0.133375 -0.522447
			-0.277357  0.936688 -0.213750
			-0.622582  0.750656 -0.221150
			-0.811111  0.553384 -0.189382
			 0.984109  0.177448 -0.006407
			 0.256014  0.966436  0.021421
			-0.671278 -0.331850 -0.662768
			-0.293101 -0.831365 -0.472149
			 0.785081 -0.618457  0.034035
			 0.892418 -0.450879  0.017243
			-0.014880 -0.987908 -0.154327
			 0.423935 -0.902226  0.079171
			 0.486329 -0.831766 -0.267674
			 0.886988 -0.339263 -0.313295
			-0.504393 -0.860536  0.071173
			 0.265389 -0.935346 -0.233872
			-0.013769 -0.993810 -0.110237
			-0.132528 -0.986299 -0.098237
			 0.342587 -0.883931 -0.318275
			 0.196557 -0.960697 -0.196029
			 0.371539 -0.899178 -0.231168
			-0.996050 -0.086520  0.019947
			 0.053879  0.998333  0.020676
			-0.732309  0.662184 -0.158857
			 0.477032  0.876601 -0.063334
			 0.502946  0.864101 -0.019336
			 0.504797  0.860705 -0.066088
			 0.473155  0.879247 -0.055226
			 0.481142  0.869210 -0.113916
			 0.214252  0.976085 -0.036814
			 0.136238  0.989729 -0.043300
			 0.572169  0.791126 -0.216201
			 0.236371  0.970289 -0.051653
			-0.500459  0.856099  0.128975
			-0.410384  0.909060  0.072072
			-0.286326  0.951216  0.114917
			-0.231441  0.971402  0.053047
			-0.940033  0.249466 -0.232603
			-0.804986 -0.263522 -0.531558
			-0.188685  0.952959 -0.237207
			 0.084054  0.937334 -0.338143
			-0.497781  0.842885 -0.204352
			-0.348918  0.907969 -0.232052
			-0.027270  0.949125 -0.313718
			-0.954026  0.299706  0.003242
			-0.353188  0.918971 -0.175359
			-0.872361  0.410336  0.265726
			-0.973730  0.216423  0.070796
			 0.281853  0.957383  0.063059
			 0.843109  0.068367  0.533379
			 0.844824  0.449400  0.290364
			 0.766695 -0.290614  0.572470
			-0.535449 -0.533374 -0.654833
			-0.471558 -0.842613 -0.260070
			 0.663220 -0.706750  0.246260
			 0.802561 -0.556325  0.215404
			-0.036680 -0.947268  0.318336
			-0.258216 -0.884256  0.389121
			-0.290884 -0.956205  0.032529
			 0.012673 -0.757555  0.652648
			 0.260191 -0.691433  0.673960
			 0.443873 -0.779369 -0.442224
			 0.972450 -0.069060 -0.222645
			-0.009272 -0.999863 -0.013686
			-0.417334 -0.908749 -0.002773
			-0.093195 -0.987522 -0.126944
			 0.061050 -0.982701 -0.174848
			 0.340264 -0.657802 -0.671951
			 0.245826 -0.848876 -0.467952
			 0.335895 -0.919066 -0.206137
			 0.265817 -0.859530 -0.436520
			 0.186192 -0.962489 -0.197353
			-0.710784 -0.695081 -0.107926
			-0.997977 -0.017007 -0.061255
			-0.655006 -0.753672 -0.054265
			-0.628958  0.768052  0.120450
			-0.506749  0.858676 -0.076689
			-0.549992  0.804360 -0.224752
			 0.346773  0.929859 -0.122925
			 0.455117  0.885957 -0.089159
			 0.110362  0.965181 -0.237160
			-0.083085  0.968051 -0.236587
			 0.333296  0.930283 -0.153254
			 0.476322  0.879265 -0.003205
			 0.513689  0.857533 -0.027571
			 0.958440 -0.254721  0.128491
			 0.183783  0.978570 -0.092871
			-0.520010  0.838546  0.162571
			-0.365337  0.925695  0.098067
			-0.453769  0.889880  0.046976
			-0.305252  0.947846  0.091698
			-0.421176  0.906272  0.035806
			-0.981519  0.182085  0.058876
			-0.871312 -0.484989  0.074837
			-0.918595 -0.266260  0.292043
			 0.084324  0.988938 -0.122031
			 0.186255  0.876021 -0.444855
			 0.106062  0.832119 -0.544361
			-0.475047  0.874879 -0.094432
			-0.304837  0.874818 -0.376520
			-0.907157 -0.123392  0.402295
			-0.179954  0.878865  0.441829
			 0.082090  0.951662  0.295975
			-0.545620  0.793711  0.268928
			-0.360478  0.483060  0.797940
			-0.681955  0.244401  0.689352
			-0.570763 -0.085087  0.816695
			-0.306481  0.950749  0.046324
			-0.278191  0.960348 -0.018495
			-0.221415  0.974688  0.030965
			-0.184320  0.962469 -0.199197
			-0.170367  0.980541 -0.097545
			 0.567964  0.688756  0.450590
			 0.206237  0.977495 -0.044381
			 0.572968  0.455818  0.681130
			 0.322534  0.220773  0.920452
			 0.540377  0.577194  0.612242
			 0.449974 -0.487370  0.748328
			 0.098602 -0.132046  0.986327
			 0.150385 -0.004250  0.988618
			-0.527184 -0.846147  0.078189
			-0.260345 -0.708314  0.656134
			-0.406235 -0.614635  0.676164
			-0.487105 -0.751724  0.444567
			-0.249521 -0.340481  0.906539
			-0.297880 -0.506888  0.808908
			-0.039090 -0.343331  0.938400
			 0.420501 -0.882868 -0.209100
			 0.143424 -0.989306  0.026508
			 0.136476 -0.989860  0.039399
			-0.035084 -0.999062  0.025363
			 0.108041 -0.991454 -0.073117
			-0.162844 -0.986493 -0.017722
			-0.376418 -0.923572 -0.072968
			 0.150050 -0.979175 -0.136754
			 0.236702 -0.963390 -0.125904
			-0.573941 -0.792289 -0.207048
			-0.640945  0.763935  0.074782
			-0.911812 -0.074550 -0.403783
			-0.324526  0.935016  0.142925
			-0.271154  0.961209  0.050534
			-0.224872  0.967255  0.117687
			-0.087706  0.987013 -0.134583
			-0.062587  0.997996 -0.009288
			 0.229699  0.970971 -0.066731
			 0.401777  0.915650  0.012675
			 0.590343  0.806977  0.016841
			 0.539897  0.840570  0.044196
			 0.555703  0.824143  0.109466
			 0.206977 -0.976132 -0.065781
			 0.180373 -0.978503  0.099983
			 0.200304 -0.979676 -0.010687
			 0.846752 -0.045735  0.530019
			 0.206811 -0.924911  0.319011
			 0.246155 -0.939019  0.240108
			 0.569569  0.803266  0.174225
			-0.516950  0.855759 -0.020976
			-0.694251 -0.573495  0.434878
			-0.686125 -0.678466  0.262520
			-0.602275 -0.526559  0.600000
			 0.001325  0.931353 -0.364114
			 0.428791  0.822187  0.374362
			-0.650093 -0.527527  0.546895
			-0.680815 -0.415937  0.602900
			 0.234262  0.652064  0.721065
			-0.014835  0.030356  0.999429
			 0.238574  0.325932  0.914795
			-0.300096 -0.492648  0.816848
			 0.022676 -0.354830  0.934656
			 0.615051  0.418893  0.668013
			 0.530163  0.311794  0.788487
			 0.493609  0.437381  0.751697
			 0.032046 -0.004684  0.999475
			 0.369188  0.177158  0.912313
			-0.020743 -0.185626  0.982402
			-0.036878 -0.130081  0.990817
			-0.418867 -0.567429  0.708926
			-0.448347 -0.301406  0.841510
			-0.492158 -0.614739  0.616342
			-0.201279 -0.206797  0.957456
			-0.286636 -0.349787  0.891902
			-0.018095 -0.987889  0.154106
			-0.339734 -0.938776 -0.057266
			-0.400881 -0.908743 -0.116104
			-0.424403 -0.894953 -0.137628
			-0.401846 -0.895011 -0.193583
			-0.674486 -0.398714 -0.621366
			 0.096165  0.973846  0.205855
			-0.611039  0.693006 -0.382589
			-0.052206  0.981939  0.181856
			-0.003342  0.997820  0.065906
			 0.119862  0.982842  0.140196
			 0.170230  0.985392 -0.004855
			 0.404911  0.912981  0.050131
			 0.420259  0.901996  0.098923
			 0.206288 -0.953360  0.220343
			 0.705733  0.708381  0.011736
			 0.431620 -0.816624  0.383182
			 0.939486 -0.166758  0.299263
			-0.121186 -0.992505  0.015737
			 0.160056 -0.961505  0.223359
			 0.436226  0.890637  0.128344
			-0.182725 -0.609715  0.771271
			 0.217914 -0.304297  0.927317
			 0.435360 -0.102595  0.894391
			 0.166587 -0.257116  0.951914
			-0.258760 -0.965889 -0.010124
			-0.520021 -0.679748 -0.517224
			-0.476982 -0.083365 -0.874950
			-0.431747  0.347686 -0.832291
			 0.427315  0.870261  0.245046
			 0.472500  0.818794  0.326069
			 0.366950  0.904941  0.215475
			 0.068454  0.957764 -0.279288
			 0.326125  0.938832  0.110617
			 0.264347  0.961769  0.071569
			 0.488785  0.849535  0.198440
			 0.587215  0.791622  0.168858
			 0.675268  0.734156 -0.070911
			 0.719315  0.564072 -0.405474
			 0.814843 -0.448850 -0.366832
			-0.345716 -0.818006 -0.459725
			 0.109661 -0.902010 -0.417556
			 0.358687 -0.393005  0.846694
			-0.110157 -0.139568 -0.984066
			-0.052748  0.342637 -0.937986
			 0.489743  0.643413 -0.588364
			 0.537523  0.808542  0.239435
			 0.551635  0.826227  0.114228
			 0.701152  0.708359  0.081324
			 0.409677 -0.167892 -0.896648
		</DataArray>
	</PointData>
	<Points>
		<DataArray type="Float32" NumberOfComponents="3" format="ascii">
      0.03091	0.379376	-0.07672
      0.032725	0.388411	-0.073827
      0.031654	0.378319	-0.068994
      0.032396	0.376029	-0.06643
      0.033325	0.376575	-0.078236
      0.027258	0.379238	-0.096583
      0.025913	0.382403	-0.095651
      0.023761	0.389446	-0.107149
      0.033795	0.389082	-0.055032
      0.034859	0.389897	-0.055414
      0.03251	0.388335	-0.05419
      0.030925	0.387721	-0.053111
      0.029732	0.384393	-0.054986
      0.039297	0.390443	-0.070632
      0.028946	0.3745	-0.052341
      0.036197	0.372583	-0.041441
      0.041575	0.375995	-0.062208
      0.038434	0.382881	-0.101677
      0.019094	0.381739	-0.113347
      0.024476	0.380747	-0.119152
      0.027978	0.380082	-0.113463
      0.009975	0.391517	-0.129302
      0.013327	0.39518	-0.129132
      0.020615	0.39175	-0.135077
      0.024813	0.389958	-0.121226
      0.038258	0.38797	-0.100466
      0.034369	0.38945	-0.051908
      0.035374	0.390172	-0.05377
      0.033264	0.388676	-0.05172
      0.032042	0.388109	-0.052108
      0.031815	0.388068	-0.050411
      0.029344	0.387489	-0.047156
      0.030641	0.387681	-0.048624
      0.022243	0.37614	-0.041378
      0.028195	0.387528	-0.043144
      0.02658	0.38773	-0.038295
      0.022626	0.387759	-0.026044
      0.044807	0.386518	-0.054548
      0.0406	0.39096	-0.054026
      0.023032	0.373529	-0.041714
      0.024655	0.371618	-0.041603
      0.039881	0.37468	-0.030286
      0.042692	0.379837	-0.041285
      0.028639	0.369598	-0.037241
      0.034838	0.370146	-0.0307
      0.029723	0.381257	-0.114743
      0.03075	0.386005	-0.123645
      0.015146	0.382532	-0.123854
      0.026899	0.3804	-0.116071
      0.020076	0.381699	-0.131011
      0.018379	0.382011	-0.132842
      0.024786	0.382684	-0.128118
      0.021326	0.381907	-0.131855
      0.027981	0.381305	-0.117925
      0.008558	0.386535	-0.140555
      0.011843	0.396552	-0.131658
      0.010826	0.394402	-0.138875
      0.018137	0.392974	-0.138366
      0.020866	0.391507	-0.1383
      0.018059	0.393242	-0.136573
      0.022535	0.39058	-0.135801
      0.02727	0.38894	-0.129126
      0.026262	0.38978	-0.123094
      0.029152	0.389505	-0.119915
      0.032009	0.389267	-0.116748
      0.032666	0.390135	-0.112466
      0.034702	0.389513	-0.050192
      0.033221	0.388619	-0.04957
      0.036546	0.390268	-0.04815
      0.032239	0.387336	-0.04199
      0.019577	0.375035	-0.037864
      0.019852	0.373077	-0.038975
      0.028974	0.389673	-0.033852
      0.031225	0.389553	-0.035769
      0.026993	0.388383	-0.036069
      0.027813	0.3891	-0.035067
      0.032214	0.387397	-0.03823
      0.021018	0.382466	-0.029382
      0.027221	0.391327	-0.026856
      0.022633	0.388058	-0.024544
      0.021888	0.385138	-0.026804
      0.040982	0.389279	-0.039863
      0.042086	0.380676	-0.026632
      0.042624	0.384649	-0.02974
      0.041458	0.378844	-0.026244
      0.021774	0.372312	-0.040252
      0.020853	0.371875	-0.038773
      0.038074	0.373024	-0.028265
      0.039669	0.375088	-0.028114
      0.03222	0.369945	-0.029708
      0.028644	0.369797	-0.031584
      0.024499	0.370071	-0.035165
      0.034134	0.370477	-0.028686
      0.03596	0.371974	-0.027447
      0.027431	0.38307	-0.127125
      0.028813	0.38649	-0.130784
      0.016621	0.383226	-0.140752
      0.010816	0.383872	-0.141109
      0.017335	0.38288	-0.138251
      0.018141	0.382488	-0.136111
      0.026406	0.383151	-0.127583
      0.026883	0.383627	-0.12779
      0.021822	0.382745	-0.134399
      0.025798	0.382622	-0.127354
      0.020442	0.383023	-0.136686
      0.009409	0.385903	-0.153478
      0.007584	0.388617	-0.15304
      0.009588	0.385392	-0.149185
      0.010991	0.392566	-0.154367
      0.011625	0.393301	-0.144987
      0.011174	0.393843	-0.14131
      0.014992	0.3948	-0.137399
      0.016222	0.394292	-0.137187
      0.014081	0.394873	-0.138815
      0.012658	0.394698	-0.138966
      0.015191	0.394223	-0.140567
      0.021156	0.391321	-0.141272
      0.022541	0.390455	-0.138993
      0.028037	0.386174	-0.150435
      0.027982	0.389424	-0.123892
      0.035658	0.389574	-0.048123
      0.033791	0.388499	-0.045606
      0.03498	0.388682	-0.043763
      0.036977	0.39013	-0.045897
      0.033446	0.387919	-0.042174
      0.020122	0.379955	-0.031083
      0.019588	0.373155	-0.037591
      0.019728	0.375174	-0.033351
      0.031291	0.391548	-0.027725
      0.032546	0.389782	-0.034674
      0.032712	0.388633	-0.036168
      0.034076	0.388293	-0.039702
      0.033853	0.388893	-0.035854
      0.020676	0.379418	-0.028719
      0.026871	0.391248	-0.023718
      0.02877	0.391576	-0.02418
      0.025164	0.390502	-0.02353
      0.02557	0.38948	-0.022192
      0.023892	0.387961	-0.022835
      0.024924	0.383177	-0.021327
      0.036883	0.389926	-0.043633
      0.036321	0.38965	-0.038875
      0.03661	0.389732	-0.041308
      0.034985	0.389777	-0.03503
      0.035891	0.389651	-0.036599
      0.03957	0.388281	-0.029772
      0.035244	0.390121	-0.031749
      0.041953	0.384594	-0.028431
      0.040875	0.380905	-0.026116
      0.040852	0.386012	-0.028824
      0.039335	0.375409	-0.026321
      0.03889	0.377131	-0.025841
      0.040016	0.379054	-0.025782
      0.022335	0.370914	-0.036349
      0.031091	0.3705	-0.029431
      0.029199	0.37073	-0.030184
      0.022696	0.371271	-0.03421
      0.032791	0.372829	-0.02746
      0.031624	0.371525	-0.02828
      0.035919	0.373868	-0.026453
      0.027462	0.384267	-0.129712
      0.018725	0.383475	-0.144971
      0.016775	0.383154	-0.144838
      0.01471	0.382936	-0.144686
      0.019013	0.383477	-0.141756
      0.015452	0.382976	-0.148239
      0.012676	0.384114	-0.153072
      0.019533	0.383187	-0.139115
      0.02192	0.383746	-0.139386
      0.011344	0.38538	-0.158136
      0.009357	0.392917	-0.160172
      0.010407	0.391621	-0.168753
      0.011096	0.393539	-0.159309
      0.012233	0.393384	-0.154135
      0.01236	0.393762	-0.15704
      0.013736	0.393681	-0.144708
      0.01383	0.39329	-0.149098
      0.015842	0.39374	-0.144014
      0.018998	0.392411	-0.144752
      0.022946	0.390166	-0.142182
      0.022152	0.390883	-0.145174
      0.023635	0.390226	-0.149305
      0.021292	0.383813	-0.142008
      0.017266	0.383021	-0.148366
      0.020946	0.383791	-0.145133
      0.033426	0.384995	-0.161306
      0.026397	0.382728	-0.159587
      0.024601	0.383341	-0.155889
      0.025575	0.389829	-0.154894
      0.035348	0.388994	-0.041627
      0.020921	0.373237	-0.033759
      0.020847	0.37224	-0.035355
      0.021135	0.374359	-0.032281
      0.033853	0.389879	-0.034174
      0.033256	0.390891	-0.026124
      0.022431	0.378938	-0.026884
      0.023204	0.380411	-0.024348
      0.028982	0.390037	-0.0225
      0.027288	0.386158	-0.020877
      0.029195	0.388352	-0.02121
      0.02488	0.381317	-0.022337
      0.026518	0.383445	-0.02113
      0.037952	0.3872	-0.02728
      0.036372	0.386752	-0.025509
      0.03936	0.384867	-0.027342
      0.038071	0.379131	-0.025781
      0.037575	0.384416	-0.025759
      0.037324	0.375301	-0.026077
      0.036638	0.37725	-0.02594
      0.025019	0.37167	-0.032024
      0.029972	0.372024	-0.028929
      0.022784	0.372477	-0.032577
      0.034086	0.374347	-0.026704
      0.031171	0.373538	-0.027996
      0.023901	0.38148	-0.163173
      0.02302	0.381432	-0.16677
      0.014349	0.383872	-0.157557
      0.013039	0.384633	-0.15846
      0.024348	0.38113	-0.169545
      0.0231	0.385442	-0.180045
      0.015032	0.396143	-0.168943
      0.013347	0.395989	-0.169675
      0.014853	0.394874	-0.163466
      0.014661	0.393677	-0.154274
      0.016266	0.393964	-0.159966
      0.016476	0.393368	-0.148596
      0.020171	0.391985	-0.149211
      0.021863	0.391754	-0.154893
      0.022514	0.382878	-0.156165
      0.036563	0.385989	-0.171133
      0.034071	0.380985	-0.166137
      0.03732	0.382988	-0.168704
      0.02981	0.379612	-0.169523
      0.024322	0.382334	-0.159693
      0.023971	0.39135	-0.160163
      0.025102	0.379267	-0.023652
      0.028425	0.3836	-0.021261
      0.030548	0.38578	-0.021731
      0.033047	0.378829	-0.025508
      0.026547	0.380249	-0.168393
      0.024463	0.384318	-0.180201
      0.024035	0.386701	-0.180937
      0.019357	0.395243	-0.17701
      0.024374	0.392606	-0.168229
      0.022989	0.394422	-0.170979
      0.022515	0.395709	-0.173346
      0.020507	0.39647	-0.176259
      0.019929	0.393204	-0.160301
      0.018104	0.393228	-0.154627
      0.027059	0.391639	-0.170303
      0.026027	0.393184	-0.174
      0.027824	0.391802	-0.175472
      0.029441	0.389697	-0.177066
      0.037328	0.381009	-0.174281
      0.028061	0.381268	-0.179452
      0.030886	0.380702	-0.179097
      0.030048	0.383341	-0.021985
      0.026333	0.384886	-0.181788
      0.02433	0.389685	-0.180569
      0.026288	0.39361	-0.177619
      0.025163	0.393053	-0.171523
      0.02442	0.394967	-0.175701
      0.026317	0.393449	-0.17591
      0.029821	0.382062	-0.180846

    </DataArray>
	</Points>
			<Polys>
				<DataArray type="Int32" Name="connectivity" format="ascii">
					2 1 0 
					0 3 2 
					5 4 0 
					6 5 0 
					3 0 4 
					0 7 6 
					7 0 1 
					9 1 8 
					1 11 10 
					1 10 8 
					1 12 11 
					1 2 12 
					13 1 9 
					13 7 1 
					2 14 12 
					3 14 2 
					15 14 3 
					4 15 3 
					15 4 16 
					17 16 4 
					5 17 4 
					6 18 5 
					5 18 19 
					20 17 5 
					20 5 19 
					6 7 18 
					21 18 7 
					7 22 21 
					7 23 22 
					7 24 23 
					25 24 7 
					7 13 25 
					27 8 26 
					8 27 9 
					8 10 28 
					8 28 26 
					13 9 27 
					10 11 29 
					28 10 29 
					11 30 29 
					12 31 11 
					32 11 31 
					30 11 32 
					12 14 33 
					12 34 31 
					12 35 34 
					12 36 35 
					12 33 36 
					25 13 37 
					37 13 38 
					13 27 38 
					39 33 14 
					39 14 40 
					15 40 14 
					15 42 41 
					43 40 15 
					42 15 16 
					44 15 41 
					43 15 44 
					16 17 37 
					42 16 37 
					45 17 20 
					17 45 46 
					17 46 25 
					25 37 17 
					47 18 21 
					19 18 47 
					48 20 19 
					19 50 49 
					50 19 47 
					19 52 51 
					49 52 19 
					53 48 19 
					19 51 53 
					45 20 48 
					21 54 47 
					56 21 55 
					54 21 56 
					22 55 21 
					23 55 22 
					23 58 57 
					57 59 23 
					55 23 59 
					61 60 23 
					62 61 23 
					62 23 24 
					58 23 60 
					62 24 63 
					64 63 24 
					24 65 64 
					25 65 24 
					25 64 65 
					46 64 25 
					67 66 26 
					26 28 67 
					66 27 26 
					66 68 27 
					38 27 68 
					30 67 28 
					30 28 29 
					67 30 32 
					32 31 69 
					31 34 69 
					69 67 32 
					33 70 36 
					33 71 70 
					71 33 39 
					73 34 72 
					34 35 74 
					74 75 34 
					34 75 72 
					76 34 73 
					34 76 69 
					74 35 36 
					77 36 70 
					78 74 36 
					78 36 79 
					36 77 80 
					79 36 80 
					38 81 37 
					37 83 82 
					83 37 81 
					37 84 42 
					82 84 37 
					68 81 38 
					85 39 40 
					71 39 85 
					86 40 43 
					40 86 85 
					41 87 44 
					42 84 41 
					88 41 84 
					87 41 88 
					43 44 89 
					90 43 89 
					90 91 43 
					91 86 43 
					44 93 92 
					87 93 44 
					89 44 92 
					53 46 45 
					48 53 45 
					94 46 53 
					64 46 95 
					46 94 95 
					47 97 96 
					97 47 54 
					47 96 98 
					47 98 50 
					50 52 49 
					50 98 99 
					50 99 52 
					101 100 51 
					51 52 102 
					53 51 103 
					100 103 51 
					51 102 101 
					52 99 104 
					52 104 102 
					53 103 94 
					54 106 105 
					107 97 54 
					109 108 54 
					106 54 108 
					105 107 54 
					109 54 110 
					56 110 54 
					55 112 111 
					113 55 111 
					114 55 113 
					56 55 114 
					55 59 112 
					114 110 56 
					57 116 115 
					58 116 57 
					115 59 57 
					116 58 117 
					58 60 117 
					115 112 59 
					117 60 61 
					61 118 117 
					61 62 119 
					64 61 119 
					95 118 61 
					95 61 64 
					62 63 119 
					119 63 64 
					68 66 120 
					66 67 120 
					67 69 121 
					122 67 121 
					120 67 122 
					68 123 81 
					123 68 120 
					76 124 69 
					69 124 121 
					77 70 125 
					70 71 126 
					70 126 127 
					125 70 127 
					85 86 71 
					126 71 86 
					73 72 78 
					72 75 78 
					129 73 128 
					78 128 73 
					76 73 129 
					74 78 75 
					76 129 130 
					132 131 76 
					132 76 130 
					131 124 76 
					133 77 125 
					80 77 133 
					135 78 134 
					78 135 128 
					78 136 134 
					79 136 78 
					136 79 137 
					79 138 137 
					133 79 80 
					139 79 133 
					138 79 139 
					123 140 81 
					142 141 81 
					144 143 81 
					81 145 83 
					140 142 81 
					141 144 81 
					81 146 145 
					143 146 81 
					83 147 82 
					148 82 147 
					84 82 148 
					83 149 147 
					145 149 83 
					84 150 88 
					150 84 151 
					151 84 152 
					84 148 152 
					86 153 126 
					153 86 91 
					150 87 88 
					87 150 93 
					90 89 154 
					92 154 89 
					156 90 155 
					90 156 91 
					90 154 155 
					156 153 91 
					92 93 157 
					92 158 154 
					157 158 92 
					93 150 159 
					93 159 157 
					100 94 103 
					94 100 101 
					95 94 160 
					160 94 101 
					118 95 160 
					96 162 161 
					163 96 97 
					162 96 163 
					161 164 96 
					98 96 164 
					97 166 165 
					97 165 163 
					166 97 107 
					99 98 167 
					98 164 167 
					167 104 99 
					160 101 102 
					102 104 168 
					168 160 102 
					168 104 167 
					169 105 106 
					107 105 166 
					105 169 166 
					108 170 106 
					170 171 106 
					106 171 169 
					172 170 108 
					109 173 108 
					174 172 108 
					108 173 174 
					175 109 110 
					176 173 109 
					176 109 175 
					110 114 175 
					115 111 112 
					113 111 115 
					114 113 115 
					114 115 177 
					114 177 175 
					177 115 116 
					177 116 178 
					117 179 116 
					116 180 178 
					180 116 179 
					117 118 179 
					181 180 118 
					168 182 118 
					184 183 118 
					184 118 182 
					160 168 118 
					118 186 185 
					187 186 118 
					187 118 183 
					188 181 118 
					188 118 185 
					180 179 118 
					122 123 120 
					121 124 122 
					131 122 124 
					189 122 131 
					140 123 122 
					122 189 140 
					125 127 133 
					127 126 190 
					153 191 126 
					126 191 190 
					133 127 192 
					190 192 127 
					193 129 128 
					128 146 193 
					128 194 146 
					135 194 128 
					130 129 193 
					193 132 130 
					131 144 141 
					131 141 189 
					131 143 144 
					132 143 131 
					132 193 143 
					133 192 195 
					133 196 139 
					195 196 133 
					197 135 134 
					137 134 136 
					197 134 137 
					197 194 135 
					137 139 198 
					199 197 137 
					137 138 139 
					198 199 137 
					196 200 139 
					200 201 139 
					139 201 198 
					140 189 142 
					189 141 142 
					143 193 146 
					146 194 145 
					145 203 202 
					145 194 203 
					145 204 149 
					145 202 204 
					149 204 147 
					148 147 204 
					205 152 148 
					204 206 148 
					205 148 206 
					150 151 207 
					207 159 150 
					207 151 208 
					208 151 205 
					151 152 205 
					153 156 191 
					155 154 158 
					155 209 156 
					210 209 155 
					158 210 155 
					156 211 190 
					190 191 156 
					209 211 156 
					213 157 212 
					210 158 157 
					210 157 213 
					157 159 212 
					212 159 207 
					183 184 161 
					162 183 161 
					184 164 161 
					183 162 163 
					163 165 183 
					184 182 164 
					167 164 182 
					214 165 166 
					214 183 165 
					166 215 214 
					215 166 216 
					166 217 216 
					166 169 217 
					182 168 167 
					218 215 169 
					219 169 171 
					219 218 169 
					215 217 169 
					170 172 220 
					170 221 171 
					220 221 170 
					221 219 171 
					172 222 220 
					172 174 222 
					173 176 223 
					174 173 223 
					223 224 174 
					222 174 224 
					175 177 225 
					225 176 175 
					223 176 225 
					225 177 178 
					178 226 225 
					180 226 178 
					180 181 226 
					181 188 227 
					227 226 181 
					183 228 187 
					214 228 183 
					229 188 185 
					186 230 185 
					231 185 230 
					229 185 231 
					232 186 214 
					214 186 233 
					232 230 186 
					186 187 228 
					186 228 233 
					188 229 234 
					188 234 227 
					211 192 190 
					192 235 195 
					192 211 209 
					192 209 235 
					203 194 197 
					235 196 195 
					196 235 200 
					197 199 203 
					198 201 236 
					236 237 198 
					237 199 198 
					237 203 199 
					235 201 200 
					235 236 201 
					202 203 206 
					202 206 204 
					203 237 238 
					238 206 203 
					238 208 205 
					238 205 206 
					208 212 207 
					238 212 208 
					209 210 213 
					213 235 209 
					213 212 238 
					213 238 235 
					239 214 215 
					239 232 214 
					233 228 214 
					215 216 217 
					215 218 239 
					219 240 218 
					232 218 240 
					232 239 218 
					240 219 241 
					221 242 219 
					219 242 241 
					243 220 234 
					245 220 244 
					246 221 220 
					220 224 247 
					222 224 220 
					220 247 234 
					220 243 244 
					220 245 246 
					221 246 242 
					248 224 223 
					225 248 223 
					248 247 224 
					248 225 226 
					248 226 227 
					247 248 227 
					227 234 247 
					229 250 249 
					250 229 251 
					251 229 252 
					252 229 253 
					231 253 229 
					229 249 234 
					253 230 232 
					253 231 230 
					240 254 232 
					255 253 232 
					255 232 254 
					234 249 243 
					235 256 236 
					235 238 256 
					237 236 256 
					237 256 238 
					241 257 240 
					254 240 257 
					241 242 258 
					258 257 241 
					246 259 242 
					242 259 258 
					243 260 244 
					249 260 243 
					244 261 245 
					260 261 244 
					261 246 245 
					259 246 261 
					250 260 249 
					260 250 261 
					261 250 262 
					251 262 250 
					252 262 251 
					252 263 259 
					263 252 253 
					252 259 262 
					255 263 253 
					257 263 254 
					255 254 263 
					259 257 258 
					263 257 259 
					261 262 259 
				</DataArray>
				<DataArray type="Int32" Name="offsets" format="ascii">
					3 6 9 12 15 18 21 24 27 30 33 36 39 42 45 48 51 54 57 60 63 66 69 72 75 78 81 84 87 90 93 96 99 102 105 108 111 114 117 120 123 126 129 132 135 138 141 144 147 150 153 156 159 162 165 168 171 174 177 180 183 186 189 192 195 198 201 204 207 210 213 216 219 222 225 228 231 234 237 240 243 246 249 252 255 258 261 264 267 270 273 276 279 282 285 288 291 294 297 300 303 306 309 312 315 318 321 324 327 330 333 336 339 342 345 348 351 354 357 360 363 366 369 372 375 378 381 384 387 390 393 396 399 402 405 408 411 414 417 420 423 426 429 432 435 438 441 444 447 450 453 456 459 462 465 468 471 474 477 480 483 486 489 492 495 498 501 504 507 510 513 516 519 522 525 528 531 534 537 540 543 546 549 552 555 558 561 564 567 570 573 576 579 582 585 588 591 594 597 600 603 606 609 612 615 618 621 624 627 630 633 636 639 642 645 648 651 654 657 660 663 666 669 672 675 678 681 684 687 690 693 696 699 702 705 708 711 714 717 720 723 726 729 732 735 738 741 744 747 750 753 756 759 762 765 768 771 774 777 780 783 786 789 792 795 798 801 804 807 810 813 816 819 822 825 828 831 834 837 840 843 846 849 852 855 858 861 864 867 870 873 876 879 882 885 888 891 894 897 900 903 906 909 912 915 918 921 924 927 930 933 936 939 942 945 948 951 954 957 960 963 966 969 972 975 978 981 984 987 990 993 996 999 1002 1005 1008 1011 1014 1017 1020 1023 1026 1029 1032 1035 1038 1041 1044 1047 1050 1053 1056 1059 1062 1065 1068 1071 1074 1077 1080 1083 1086 1089 1092 1095 1098 1101 1104 1107 1110 1113 1116 1119 1122 1125 1128 1131 1134 1137 1140 1143 1146 1149 1152 1155 1158 1161 1164 1167 1170 1173 1176 1179 1182 1185 1188 1191 1194 1197 1200 1203 1206 1209 1212 1215 1218 1221 1224 1227 1230 1233 1236 1239 1242 1245 1248 1251 1254 1257 1260 1263 1266 1269 1272 1275 1278 1281 1284 1287 1290 1293 1296 1299 1302 1305 1308 1311 1314 1317 1320 1323 1326 1329 1332 1335 1338 1341 1344 1347 1350 1353 1356 1359 1362 1365 1368 1371 1374 1377 1380 1383 1386 1389 1392 1395 1398 1401 1404 1407 1410 1413 1416 1419 1422 1425 1428 1431 1434 1437 1440 1443 1446 1449 1452 1455 1458 1461 1464 1467 1470 1473 1476 1479 1482 1485 1488 1491 1494 1497 1500 1503 1506 1509 1512 1515 1518 1521 1524 1527 1530 1533 1536 1539 1542 1545 1548 1551 1554 1557 1560 1563 1566 1569 1572 
				</DataArray>
			</Polys>
		</Piece>
	</PolyData>
</VTKFile>
